# vtk DataFile Version 2.0
Voronoi Diagram zebra

ASCII
DATASET UNSTRUCTURED_GRID

POINTS 0145 double
9.0 8.5 0
9.0 8.5 0
9.0 8.5 0
9.0 8.5 0
9.0 8.5 0
9.0 8.5 0
9.0 8.5 0
9.0 8.5 0
7.0597676 11.8804649 0
10.8004740 9.5332543 0
9.0 8.5 0
9.0 8.5 0
9.0 8.5 0
12.9109302 11.7226745 0
12.9827346 6.4665583 0
15.7872460 5.3670287 0
3.6346960 3.6346960 0
9.0 8.5 0
3.0534294 6.1123261 0
9.0 8.5 0
9.0 8.5 0
9.0 8.5 0
7.4688952 5.2282266 0
9.0 8.5 0
4.3023173 3.0116221 0
3.6346960 3.6346960 0
10.9520636 5.0958728 0
9.0 8.5 0
9.0 8.5 0
9.0 8.5 0
9.0 8.5 0
9.0 8.5 0
15.7872460 5.3670287 0
9.0 8.5 0
9.0 8.5 0
10.9520636 5.0958728 0
9.0 8.5 0
9.0 8.5 0
9.0 8.5 0
9.0 8.5 0
9.0 8.5 0
9.0 8.5 0
9.0 8.5 0
16.0036657 13.1381441 0
11.4293142 13.4293142 0
9.0 8.5 0
9.0 8.5 0
11.0872451 13.8120751 0
12.9109302 11.7226745 0
9.0 8.5 0
11.0872451 13.8120751 0
11.4293142 13.4293142 0
16.0036657 13.1381441 0
15.8736495 13.1159054 0
9.0 8.5 0
9.0 8.5 0
9.0 8.5 0
16.9640754 11.9033316 0
9.0 8.5 0
9.0 8.5 0
7.0597676 11.8804649 0
9.0 8.5 0
9.0 8.5 0
9.0 8.5 0
6.8493756 8.4421014 0
9.0 8.5 0
7.7111534 14.4277883 0
9.0 8.5 0
9.0 8.5 0
9.0 8.5 0
9.0 8.5 0
4.9275440 15.9721859 0
8.1059127 16.2627249 0
9.0 8.5 0
9.0 8.5 0
7.7111534 14.4277883 0
9.0 8.5 0
9.0 8.5 0
7.4422469 15.3507900 0
8.1059127 16.2627249 0
0.4881742 14.5354775 0
9.0 8.5 0
9.0 8.5 0
2.0891042 16.2984435 0
2.1072563 14.1072563 0
9.0 8.5 0
9.0 8.5 0
0.4881742 14.5354775 0
4.0716760 11.2491339 0
9.0 8.5 0
1.6026413 14.7745049 0
2.1072563 14.1072563 0
3.7213587 12.4752444 0
9.0 8.5 0
2.6595722 8.3343468 0
9.0 8.5 0
5.2947457 11.0805868 0
4.0716760 11.2491339 0
9.0 8.5 0
9.0 8.5 0
3.0534294 6.1123261 0
9.0 8.5 0
2.4805503 6.4396856 0
2.6595722 8.3343468 0
7.4688952 5.2282266 0
7.4159517 5.3235396 0
5.0000000 5.0000000 0
0.0000000 0.0000000 0
10.0000000 7.0000000 0
10.5237588 9.0666186 0
10.7694072 9.2948282 0
10.8004740 9.5332543 0
12.0000000 3.0000000 0
20.0000000 8.0000000 0
13.0000000 17.0000000 0
10.0000000 12.0000000 0
11.9279452 15.2132420 0
12.2078808 15.0127795 0
12.0000000 14.0000000 0
15.4626432 7.8227240 0
15.3193154 5.9756711 0
14.0000000 9.0000000 0
8.0000000 10.0000000 0
4.8247054 14.5405590 0
6.0000000 14.0000000 0
10.0000000 15.0000000 0
7.0000000 17.0000000 0
0.0000000 16.0000000 0
1.0000000 13.0000000 0
2.0891042 16.2984435 0
3.3844101 16.4834872 0
4.5847599 16.6549657 0
3.0000000 15.0000000 0
6.2763164 6.8868981 0
5.0000000 8.0000000 0
6.7970455 6.8347744 0
7.0671475 7.4910913 0
-2.0000000 9.0000000 0
4.3023173 3.0116221 0
16.9640754 11.9033316 0
11.9279452 15.2132420 0
3.3844101 16.4834872 0
4.5847599 16.6549657 0
3.7213587 12.4752444 0
2.4805503 6.4396856 0
CELLS 0026 0153
6 8 124 123 143 88 96
4 8 96 64 122
6 9 110 14 120 119 121
6 9 122 64 136 109 110
6 13 121 119 57 52 53
5 14 35 112 15 120
5 14 110 109 108 26
5 16 24 22 105 106
5 18 106 105 135 133
3 24 25 107
5 43 114 116 117 53
3 44 47 115
4 48 53 117 118
5 50 51 118 117 116
4 66 125 72 78
6 71 131 130 132 92 123
5 71 123 124 75 78
5 78 79 126 131 71
4 80 90 83 127
5 84 132 141 129 90
4 87 128 91 90
5 94 102 100 133 134
7 96 97 134 133 135 136 64
3 102 103 137
6 104 108 109 136 135 105
5 113 57 119 120 32
CELL_TYPES 0026
7
7
7
7
7
7
7
7
7
7
7
7
7
7
7
7
7
7
7
7
7
7
7
7
7
7
CELL_DATA 0026
SCALARS properties int 1
LOOKUP_TABLE default
50
46
43
47
44
27
25
19
20
21
33
36
40
41
51
64
49
54
57
65
60
67
68
69
26
30