# vtk DataFile Version 2.0
Edges random

ASCII
DATASET UNSTRUCTURED_GRID

POINTS 3387 double
    17.2062242     13.4404632 0.0
    17.2708452     13.5637722 0.0
    17.0963168     13.4403322 0.0
    17.2785276     13.7730556 0.0
    17.0958061     13.1763536 0.0
    17.7906141     13.4738244 0.0
    17.6245816     13.7174432 0.0
    16.9333937     13.8991393 0.0
    16.8475710     13.2282063 0.0
    16.6526367     13.7081052 0.0
    16.3735622     13.6220672 0.0
    16.8459859     13.2243050 0.0
    17.1230360     13.0534177 0.0
    17.7421338     13.2965812 0.0
    17.1123979     14.0965692 0.0
    17.5972963     14.0235101 0.0
    16.6469884     13.8516051 0.0
    16.5457488     13.9798058 0.0
    17.1094268     14.1378884 0.0
    16.5511867     13.7563664 0.0
    17.6728624     14.1056044 0.0
    17.9517796     13.8354899 0.0
    16.4950903     13.9467073 0.0
    16.8367672     12.8614997 0.0
    17.9729534     13.0233192 0.0
    17.9630204     13.3163590 0.0
    16.1494524     13.1854643 0.0
    17.1510930     14.3951232 0.0
    17.6913785     14.1534080 0.0
    17.7840533     12.9029764 0.0
    16.2441597     14.1711677 0.0
    16.9365039     14.5478810 0.0
    17.4741528     14.5035179 0.0
    16.6338929     12.4981797 0.0
    16.8613469     12.7431291 0.0
    17.4520518     12.4828794 0.0
    18.2505423     13.8909193 0.0
    18.1954625     13.9400435 0.0
    17.4537263     14.7168060 0.0
    17.7046698     14.7189972 0.0
    17.0267944     14.8121720 0.0
    16.0751855     13.9941253 0.0
    16.0920684     13.4963761 0.0
    16.4662201     14.5849501 0.0
    17.7941888     12.6418574 0.0
    17.9033502     12.7386197 0.0
    17.3658376     12.4212529 0.0
    18.2084467     14.1420379 0.0
    16.6896207     14.5908068 0.0
    17.2456001     12.2506894 0.0
    17.0968418     12.2432728 0.0
    17.5863816     12.4244730 0.0
    18.3325752     13.1398024 0.0
    16.0533460     14.3975170 0.0
    16.0753489     14.0848845 0.0
    17.7773758     12.3822157 0.0
    17.5668664     12.3698982 0.0
    17.8111040     14.6416903 0.0
    16.5786749     14.6837600 0.0
    18.3030861     13.0019742 0.0
    16.6668971     14.8355641 0.0
    18.3947580     12.9592926 0.0
    18.4529527     12.8668992 0.0
    18.1507547     14.4576394 0.0
    17.0746684     14.8927876 0.0
    16.6781144     12.3167212 0.0
    17.8193340     11.9861075 0.0
    17.4903168     15.1442693 0.0
    17.9918967     14.7443440 0.0
    18.3805875     14.1994034 0.0
    18.2817266     14.3123040 0.0
    17.0061862     12.1884631 0.0
    17.6691886     11.8368079 0.0
    15.7853795     14.2802444 0.0
    15.8425576     13.9517186 0.0
    15.6309555     13.6441478 0.0
    16.2256366     14.8865283 0.0
    16.2094345     14.6209933 0.0
    16.8319681     14.9623704 0.0
    18.4834426     14.3258749 0.0
    18.6426905     13.9584336 0.0
    18.3979800     14.6732437 0.0
    18.1027118     14.5608363 0.0
    15.9240717     14.4104067 0.0
    16.0145199     14.3898906 0.0
    16.9604811     15.0134029 0.0
    16.2614538     14.9790387 0.0
    18.1355802     14.8403356 0.0
    18.4872162     12.4759893 0.0
    18.8295303     12.8723909 0.0
    18.7446423     13.5087670 0.0
    16.0161398     14.7153661 0.0
    15.4747981     14.3076835 0.0
    15.7978757     14.4829199 0.0
    15.7721437     14.3518248 0.0
    17.8587549     15.1012087 0.0
    16.6469486     15.1916843 0.0
    18.6117923     12.7755492 0.0
    18.7183779     14.6789951 0.0
    16.0247701     14.9575166 0.0
    15.8914686     14.8476071 0.0
    18.4487534     12.3317266 0.0
    18.2042778     15.0149571 0.0
    17.4998576     15.2260976 0.0
    16.7907299     15.6299575 0.0
    18.6846725     12.7245609 0.0
    18.0346485     11.9341545 0.0
    18.8623857     12.6176018 0.0
    17.8552756     11.4384722 0.0
    17.6290448     11.1848031 0.0
    19.0427570     13.1881671 0.0
    18.9343432     13.7578470 0.0
    19.0024103     14.0533069 0.0
    16.2814621     15.2142757 0.0
    18.7557474     15.1018029 0.0
    17.5635660     15.3641858 0.0
    17.4839461     15.3669338 0.0
    17.8991552     11.8236598 0.0
    15.6477464     14.7943343 0.0
    17.9999090     15.3273094 0.0
    15.6767797     14.8496354 0.0
    16.5548724     15.3776641 0.0
    19.1444541     13.8264347 0.0
    18.8292495     14.6352218 0.0
    19.0168313     12.3512749 0.0
    19.0644683     13.1188810 0.0
    16.5214403     15.6419343 0.0
    16.5278775     15.3954868 0.0
    15.6720393     15.2598105 0.0
    19.0238120     12.9254419 0.0
    16.0646834     15.3104512 0.0
    18.2992987     15.4981646 0.0
    19.0337326     12.7175925 0.0
    19.2394837     13.1472841 0.0
    19.1800470     14.5553034 0.0
    19.3847395     13.8033677 0.0
    19.1920639     14.0059595 0.0
    18.3387565     11.7610579 0.0
    16.0797320     15.6646493 0.0
    17.1822780     15.9004304 0.0
    17.7490699     15.7278367 0.0
    19.3864287     13.1134557 0.0
    19.4519290     12.8770986 0.0
    18.1132753     11.6034563 0.0
    18.5560199     11.7978256 0.0
    19.3016811     12.7244978 0.0
    14.9322453     14.7482477 0.0
    14.8450765     15.0596326 0.0
    14.9770955     14.6272379 0.0
    15.1673193     14.5578912 0.0
    15.9686470     15.5435340 0.0
    15.8945759     15.3905031 0.0
    18.8084586     15.0478130 0.0
    19.3632490     14.9449493 0.0
    18.1839091     11.5330581 0.0
    19.2535498     14.4164634 0.0
    18.2232822     15.5859367 0.0
    16.4755475     15.7741816 0.0
    18.1318923     11.3502403 0.0
    19.4992987     14.1883990 0.0
    19.5725187     13.6656707 0.0
    18.9560567     15.7882265 0.0
    15.5427534     15.4810501 0.0
    16.4818054     15.9687677 0.0
    17.5969728     15.8943427 0.0
    16.3617338     15.7822838 0.0
    19.6753805     13.8968779 0.0
    19.4725417     14.0798574 0.0
    19.6283974     14.8491356 0.0
    19.4144967     12.8034172 0.0
    19.4641278     12.6353330 0.0
    19.2134238     12.2676688 0.0
    17.7623144     16.2106419 0.0
    17.1699903     15.9455360 0.0
    16.0104743     15.7593942 0.0
    15.9976438     15.6567528 0.0
    18.9775468     11.4692929 0.0
    18.1068061     11.0480868 0.0
    16.1363191     15.7431928 0.0
    15.9479667     15.8319185 0.0
    19.5575514     13.1252410 0.0
    19.2063113     11.8743986 0.0
    19.8125249     14.1084522 0.0
    19.1643650     15.4263773 0.0
    18.7920075     15.4261738 0.0
    19.8073072     13.1994678 0.0
    16.1422192     16.1364057 0.0
    17.5232110     16.4056263 0.0
    17.2114927     16.1795681 0.0
    19.6487874     13.6252756 0.0
    16.9076942     16.1450461 0.0
    15.4275477     15.5530161 0.0
    15.4967599     15.4684374 0.0
    14.9033904     14.7743402 0.0
    17.7505474     11.0439829 0.0
    19.8201976     14.4375816 0.0
    19.7056529     12.5354419 0.0
    16.7928236     16.1972887 0.0
    17.1150163     16.2917403 0.0
    20.1751216     13.9904941 0.0
    19.9707149     13.4753563 0.0
    18.7659958     16.2372903 0.0
    19.5485289     12.0520339 0.0
    19.6120243     15.0643072 0.0
    19.0086265     11.1496804 0.0
    19.4392298     11.5040941 0.0
    19.3386294     11.8366754 0.0
    15.5409856     16.0733893 0.0
    15.9606655     16.1806204 0.0
    15.7978205     16.3848400 0.0
    15.7377010     16.2908413 0.0
    19.8875879     14.4454979 0.0
    19.9971341     14.3543806 0.0
    20.1000059     13.4774358 0.0
    19.1201550     15.6913801 0.0
    19.9780523     14.2298100 0.0
    17.7684544     16.3697705 0.0
    15.8486435     16.4329920 0.0
    17.9593642     16.6343375 0.0
    15.1536990     15.6747021 0.0
    19.6935610     15.1952240 0.0
    19.2454574     15.5868476 0.0
    15.1650883     15.8380688 0.0
    15.2335592     15.9097978 0.0
    19.2866638     15.5866641 0.0
    20.2993690     13.1560502 0.0
    20.2150932     12.6293351 0.0
    19.6847296     15.2683088 0.0
    19.3002531     15.6819798 0.0
    20.1064962     15.2781167 0.0
    15.6044649     16.1420563 0.0
    15.5759509     16.1549387 0.0
    17.6750961     16.5259162 0.0
    17.5313487     16.8556955 0.0
    16.8502031     16.7088040 0.0
    17.7364281     16.5953790 0.0
    19.8498643     12.1215642 0.0
    19.5139586     11.6547447 0.0
    19.0718171     15.9370746 0.0
    19.4365641     15.7143440 0.0
    14.7781950     15.6888161 0.0
    18.4749676     10.7281683 0.0
    14.9731933     16.2458130 0.0
    19.8396948     12.0832041 0.0
    19.9402537     11.8010141 0.0
    20.3651736     14.5116536 0.0
    18.8834775     10.6867168 0.0
    19.0263381     11.1172824 0.0
    19.4463999     11.1206057 0.0
    19.5085777     11.5768079 0.0
    16.3019403     16.7346004 0.0
    18.2018068     10.6421539 0.0
    15.2300332     16.5820191 0.0
    18.9180607     16.2639713 0.0
    20.3331247     13.7760793 0.0
    20.5255868     13.4334180 0.0
    18.6317646     16.5175253 0.0
    14.6244174     16.0275924 0.0
    20.3563262     12.6059677 0.0
    20.4401394     12.1937231 0.0
    20.1572917     12.0589263 0.0
    20.4470284     13.8330773 0.0
    20.3581768     13.9442083 0.0
    19.1061359     16.1416018 0.0
    19.6098020     11.1153866 0.0
    19.6858246     11.4929380 0.0
    19.9320546     11.6551155 0.0
    20.4865537     12.8666660 0.0
    20.4059794     12.9985565 0.0
    20.5570425     13.6958909 0.0
    18.0333868     16.9965700 0.0
    17.8624624     16.7738477 0.0
    16.5169186     16.8625529 0.0
    19.1186246     16.5075987 0.0
    17.8048997     16.8554795 0.0
    18.8361387     10.5893689 0.0
    20.0175624     11.7233319 0.0
    20.4931933     14.4676639 0.0
    19.8969027     15.7684033 0.0
    19.9534277     11.5453946 0.0
    16.3570345     16.9083455 0.0
    16.4269120     17.0444840 0.0
    16.6826852     17.2251446 0.0
    20.7328758     13.0639478 0.0
    20.5961591     14.4251732 0.0
    16.0679478     16.7541645 0.0
    15.5756005     16.7435575 0.0
    20.7866380     12.9247526 0.0
    20.9373188     12.7783157 0.0
    18.6810614     10.4342726 0.0
    19.7773202     10.8410442 0.0
[...]
POINT_DATA 3387
SCALARS edge int 1
LOOKUP_TABLE default
343
446
292
348
441
113
344
74
43
258
277
84
397
298
358
426
142
157
153
248
443
318
235
208
170
180
178
326
223
469
224
82
77
246
114
160
263
134
242
330
373
406
374
450
360
289
177
276
228
328
457
90
421
322
319
349
371
145
300
339
284
202
117
125
310
68
332
61
204
429
259
143
163
475
167
340
412
236
282
174
169
159
476
393
302
227
36
107
295
131
154
102
132
57
466
257
158
438
430
321
67
73
408
200
181
148
155
401
127
279
264
80
25
231
275
70
112
303
404
217
271
306
372
354
398
376
278
244
293
207
419
193
380
297
316
197
290
35
65
31
458
471
48
266
239
188
274
403
445
103
291
462
411
247
333
139
124
273
383
72
234
424
442
260
456
252
269
215
203
33
415
308
218
56
474
437
106
432
436
190
95
416
92
452
473
172
71
32
299
138
37
369
453
447
27
270
427
136
477
329
320
410
304
129
356
149
166
413
439
233
189
396
213
147
182
367
194
111
59
185
86
407
253
250
150
405
336
337
88
152
30
472
341
192
243
219
402
44
363
281
24
220
418
26
41
66
355
176
184
237
444
120
105
229
209
400
449
171
115
382
381
378
470
392
352
140
454
451
309
384
144
195
161
83
342
323
311
364
108
301
49
40
240
69
361
388
123
345
64
241
272
390
133
285
464
245
55
357
465
29
196
251
201
34
428
395
165
353
151
135
62
368
191
249
126
101
187
288
327
425
100
387
104
141
434
206
394
334
414
226
433
359
315
478
173
255
286
216
98
79
463
94
179
324
423
183
351
47
448
389
46
347
377
460
238
225
346
268
366
168
58
199
379
214
375
205
51
362
186
267
210
87
420
459
78
296
386
861
1546
121
175
305
146
835
38
313
1465
848
211
417
431
312
335
156
164
52
198
857
118
212
222
854
841
85
89
116
99
221
280
93
317
110
256
859
162
338
1547
81
391
54
287
409
128
855
15
440
45
1435
283
16
96
39
314
265
53
365
385
435
60
467
42
455
325
856
261
119
75
1523
50
232
262
63
331
422
254
1481
307
137
97
0
76
399
468
350
28
370
130
122
109
461
91
230
2745
17
294
2561
519
498
534
529
522
540
496
528
546
544
530
490
549
494
503
527
505
521
480
515
514
618
14
500
487
504
484
491
617
526
488
495
520
533
512
536
510
502
511
523
542
537
535
492
513
485
524
525
509
516
479
539
508
482
483
572
531
518
517
507
543
550
13
493
532
486
581
541
506
545
501
499
12
497
551
559
538
481
602
489
560
596
609
564
593
567
563
557
600
575
554
571
616
606
586
611
605
591
565
610
603
578
558
597
547
598
577
604
594
585
548
552
576
614
612
599
608
555
556
601
613
561
589
579
553
615
574
583
580
573
630
631
582
568
592
570
621
588
569
11
566
587
562
737
722
607
595
584
590
642
633
624
622
623
628
731
625
629
620
758
626
632
619
748
729
669
734
759
738
627
755
690
657
698
681
637
650
649
693
674
653
635
702
712
676
645
664
648
660
656
659
652
636
675
644
682
651
710
658
747
733
704
686
749
764
684
697
661
671
639
703
692
672
9
670
678
646
673
708
706
668
665
688
10
754
679
767
716
713
699
709
666
654
696
640
683
715
663
707
647
687
717
714
691
695
655
662
641
718
634
643
638
694
689
685
728
711
667
677
705
701
680
700
768
740
732
735
727
741
752
736
720
766
719
730
744
739
757
745
750
721
753
725
760
828
724
763
765
761
742
726
746
751
821
756
723
782
743
762
776
827
805
820
803
781
845
836
801
814
777
834
778
830
1468
784
817
806
1490
847
826
771
786
811
783
796
793
790
797
812
816
825
788
769
770
802
795
785
808
858
772
819
815
799
798
818
794
813
804
787
780
822
824
774
810
809
789
839
832
792
846
779
849
833
775
831
844
807
852
823
773
829
791
1461
8
800
1518
838
860
1482
1511
1440
840
837
851
1464
1475
850
1545
1517
842
1527
1477
853
862
1499
1489
1460
1536
1454
1525
1498
843
1496
1455
1478
1444
1535
1001
897
1012
1027
1110
1034
1063
904
915
1006
1048
951
872
899
994
871
920
870
1026
901
1045
926
945
946
1008
881
1099
1070
1072
968
1054
971
1059
1104
885
1018
969
1102
954
1033
880
963
944
992
1067
1057
867
1055
1083
1044
997
877
914
979
912
1029
1039
895
1079
913
1081
950
953
902
932
1043
1005
1014
1020
1015
1084
917
908
1080
873
1107
977
976
876
1098
1097
900
1032
886
890
1011
966
999
1002
940
1058
1060
921
980
874
974
930
1053
884
935
894
978
1108
956
864
952
911
1091
866
869
1065
1041
1016
981
1010
1094
1069
882
906
955
939
960
903
919
1050
924
936
1078
972
961
1009
1000
1037
984
1074
949
948
1017
989
1064
982
891
975
943
922
918
863
995
868
883
887
1082
986
1090
1076
928
1105
927
896
947
1007
889
991
1052
1042
941
898
1177
1149
931
1047
878
1004
893
909
1031
987
964
993
1096
1025
1013
1087
892
865
923
1106
1022
1028
1040
957
973
1023
1085
1109
1036
934
1030
1294
938
1035
4
1003
6
1100
998
1093
879
907
937
1071
1061
983
967
942
1038
1062
1073
959
1046
888
1291
1265
933
1086
965
962
990
1021
875
996
1019
1068
970
1092
985
988
1173
1024
910
1066
1095
1077
1089
925
1075
1103
1101
1056
1049
1135
929
916
905
3
1111
1088
1051
1169
958
1138
5
1124
1236
1259
1205
1257
1200
1347
1310
1132
1341
1315
1343
1234
1284
1298
1141
1217
1117
1258
1241
1249
1122
1222
1317
1118
1156
1244
1174
1339
1285
1225
1170
1268
1134
1280
1230
1242
1162
1292
1282
1159
1269
1147
1119
1161
1304
1246
1296
1183
7
1198
1160
1193
1180
1201
1322
1194
1235
1266
1261
1144
1165
1305
1325
1279
1329
1181
1219
1218
1278
1271
1238
1316
1301
1220
1213
1185
1171
1186
1116
1370
1151
1336
1121
1262
1216
1376
1396
1297
1290
1308
1237
1192
1273
1196
1345
1212
1211
1157
1255
1320
1247
1245
1300
1206
1248
1326
1178
1289
1330
1146
1182
1307
1142
1226
1115
1275
1331
1240
1309
1123
1239
1224
1327
1227
1314
1136
1281
1203
1207
1175
1295
1140
1145
1223
1387
1164
1251
1267
1256
1191
1311
1129
1197
1319
1209
1189
1252
1221
1139
1114
1202
1215
1340
1176
1127
1333
1128
1231
1172
1125
1332
1293
1150
1287
1210
1167
1153
1168
1348
1263
1264
1204
1112
1270
1199
1126
1338
1243
1346
1321
1276
1342
1188
1163
1232
1417
1120
1228
1154
1254
1179
1318
1260
1323
1152
1274
1
1283
1312
1131
1113
1303
1155
1299
1328
1344
1148
1306
1195
1158
1130
1353
1286
1277
1302
1334
1214
1335
1143
1272
1208
1166
1233
1324
1288
1313
1137
1337
1133
1253
1229
1250
1190
1184
1187
2
1915
2075
1422
1393
1374
1397
1377
1416
1361
1429
1423
1432
1480
1388
1431
1406
1418
1386
1378
1372
1424
1373
1428
1421
1352
1385
1382
1366
1398
1414
1426
1420
1365
1415
1433
1412
1471
1427
1408
1367
1531
1404
1453
1462
1375
1371
1403
1351
1400
1381
1368
1389
1350
1425
1357
1369
1407
1356
1392
1401
1364
1379
1533
1419
1363
1383
1409
1394
1384
1360
1410
1413
1395
1358
1494
1430
1402
1362
1399
1508
1503
1405
1411
1349
1542
1355
1354
1380
1390
1359
1472
1529
1436
1391
1541
1442
1504
1506
1520
1532
1483
1537
1493
1484
1439
1543
1473
1497
1548
1516
1521
1450
1551
1459
1441
1501
1456
1534
1452
1487
1505
1530
1500
1470
1495
1514
1457
1466
1526
1492
1446
1549
1539
1449
1538
1437
1513
1474
1515
1438
1507
1434
1445
1510
1519
1544
1443
1448
1476
1467
1512
1447
1469
1485
1524
1528
1509
1502
1451
1550
1479
1522
1458
1486
1491
1488
1463
1540
1560
1573
1557
20
1555
1558
1570
1554
1561
1552
1556
1559
1553
18
21
1565
1566
1582
1576
1587
1577
1575
1564
1562
1586
1563
1569
1567
1568
1572
1574
1571
1578
1580
1591
1581
1593
1619
1583
1585
1590
1579
1623
1592
1589
1594
1618
1588
1625
1620
1584
1595
1621
1616
1596
1606
1597
1612
1610
1614
1605
1598
1600
1601
1615
1608
1602
1607
1604
1611
1599
1603
1609
1613
1624
1617
1628
1622
1630
1626
1636
1627
1634
1631
1635
1632
1681
1697
1633
1629
1688
1687
1667
1663
1668
1666
1656
1647
1637
1648
1654
1661
1658
1660
1642
1664
1672
1669
1645
1651
1671
1641
1659
1646
1649
1653
1665
1662
1657
1640
1650
1643
1644
1638
1639
1670
1655
1693
1652
1683
1679
1703
1701
1692
1699
19
1685
1678
1704
1680
1673
1691
1702
1682
1686
1675
1696
1690
1689
1700
1694
1684
1674
1695
1676
1698
1677
2141
1828
1738
1814
1779
1785
2121
2119
1909
2051
1821
1881
1846
1902
1822
1943
2018
2145
1896
2160
2107
2052
1930
1760
1953
1766
1781
1906
2153
2156
1782
2163
1973
1969
2009
1994
1833
1935
1940
2106
1999
1845
2165
1813
1934
2020
2063
1900
2087
2038
1722
1750
1928
1824
1876
1884
2055
1865
1904
1901
2142
2059
1882
2146
1816
1725
1864
1988
2085
1705
1877
1710
1853
1945
2128
1957
2007
2104
1908
1979
2105
1735
1992
1851
1857
2014
2017
1743
1950
2157
2053
2076
1778
1797
1829
1799
2149
2029
2139
1925
1929
1880
1903
1956
2046
1952
1753
2050
1772
1714
1754
1776
1879
1981
1825
1897
2113
1982
1718
1887
1951
2024
1847
1739
1859
1866
1922
2100
2031
1923
1765
1871
2022
2056
2019
2094
2460
3305
2467
2013
1726
1955
1937
1794
1998
1862
1733
1970
1784
1933
1803
1706
1963
1768
2089
1889
2096
1745
1790
2054
1987
1917
1891
1837
1855
1711
1869
1977
1854
1941
2148
2151
1723
1991
1808
1996
1749
1758
1898
1748
1848
2042
2068
2162
1736
1775
1732
2091
1926
1777
1827
2081
2127
2455
1913
1719
2041
2161
2125
2138
1894
1835
1890
2033
2080
1850
2001
1931
2069
2066
2058
1842
1832
1985
1873
2012
1712
1888
2078
2049
2037
2098
1892
2074
2154
2023
1965
1773
1747
1975
2027
2462
2464
1868
22
1874
1720
2077
1972
1978
1883
1708
2133
1942
1729
2011
1798
1820
2140
1959
2079
2158
2144
2005
3102
2043
2159
2115
1986
2147
2045
1863
1770
1893
1960
2006
1946
2004
1801
2021
1787
1807
1707
2048
1938
1730
2126
1997
1741
1910
1836
1751
2016
2109
1924
2065
1800
2111
2093
1728
2032
2036
1786
1755
1911
1817
2088
2129
1737
2132
2028
2143
1860
2067
1734
1919
2118
1974
1752
1872
1740
1815
2114
1967
2030
2008
1812
2071
2152
1852
2123
1795
1840
1762
1995
1841
2072
1886
1899
1920
1875
2070
1990
1742
1921
2064
2010
1867
2034
1831
2044
1715
1780
2000
1905
1830
1789
1964
1993
1838
2060
2110
1927
2102
1826
1954
1764
1767
1971
1774
2130
1810
1968
1744
2062
1936
1763
1802
2164
1761
1756
1791
1834
2136
2137
1870
1721
1849
1806
1805
1809
2057
1783
1989
1895
1796
2086
1731
1823
2003
1983
1885
1962
1939
2002
1914
1717
2040
2120
1746
1839
2155
2082
1792
2083
2035
1811
2025
2099
1918
1819
1947
1804
1727
1961
2122
2095
1861
2015
1788
1757
1713
1716
2150
1976
2061
1793
2117
2103
2090
2134
1818
2135
2097
2084
1984
1759
2073
2112
1958
2108
1966
1856
1709
1878
1769
2047
2026
2116
1949
2101
1944
1912
1980
1932
1916
2124
2092
2039
1843
1724
1844
1907
2131
1771
1858
1948
2321
2226
2194
2309
2371
2384
2275
2228
2180
2470
2407
2304
2443
2392
2174
2214
2365
2415
2921
2410
2403
2290
2450
2347
2406
2211
2212
2395
2245
2408
2436
2457
2201
2188
2446
2351
2327
2404
2382
2380
2220
2394
2274
2213
2356
2322
2468
2223
2368
2440
2238
2257
2215
2246
2311
2204
2278
2320
2270
2359
2296
2345
2169
2178
2271
2431
2184
2399
2335
2424
2401
2339
2182
2358
2249
2305
2288
2995
2375
2326
2312
2453
2393
2280
2242
2256
3280
2283
2306
2286
2196
2318
3187
2287
2268
2299
2225
2355
2208
2266
2176
2247
2265
2417
2179
2267
2185
2218
2294
2252
2412
2319
2277
2293
2432
2276
2262
2442
2314
2402
2396
2253
2377
2416
2292
2434
2353
2425
2330
2387
2341
2206
2173
2324
2191
2419
2391
2313
2175
2195
2279
2361
2236
2350
2303
2183
2447
2310
2219
2172
2258
2337
2241
2222
2400
2426
2349
2260
2289
2983
2905
2362
2168
2239
2167
2237
2273
2197
2291
2243
2420
2389
2298
2231
2379
2301
2386
2378
2255
2232
2409
2193
2372
2333
2259
3139
2979
2451
2370
2369
2328
2334
2323
2198
2342
2284
2352
2209
2397
2295
2216
2229
2234
2423
2430
2438
2332
2364
2261
2388
2235
2374
2338
2360
2441
2307
2302
2390
2233
3355
3221
2227
2166
2348
2207
2340
2418
2357
2376
2282
2170
2217
2308
2437
2251
2385
2202
2366
2177
2445
2300
2963
2421
2414
2272
2343
2354
2346
2422
2363
2428
2181
2281
2452
2210
2230
2190
2254
2199
2189
2444
2221
2383
2316
2459
2344
2331
2285
2192
2317
2454
2325
2264
2200
2433
2250
2373
2269
2205
3150
2244
2203
2439
2336
2367
2405
2411
2381
2329
2398
2465
2448
2186
2427
2456
2187
2449
2171
2413
2224
2463
2429
2435
2240
2315
2263
2297
2248
2950
2469
3133
2461
2996
2458
3293
3228
2466
3333
3243
3162
3336
2933
3017
3309
2959
3207
3009
3311
2916
3356
2620
2835
2663
2658
2897
2609
2605
2616
2872
2893
2705
2846
2662
2817
2795
2481
2532
2499
2750
2564
2589
2730
2628
2877
2784
2635
2650
2801
2630
2786
2503
2530
2655
2550
2888
2734
2744
2574
2834
2806
2772
2551
2736
2594
2576
2703
2618
2572
2692
2814
2791
2810
2614
2513
2546
2760
2859
2626
2595
2781
2575
2824
2642
2515
2489
2602
2896
2864
2851
2761
2689
2871
2527
2886
2779
2741
2721
2710
2808
2487
2770
2615
2603
2873
2537
2633
2776
2579
2617
2860
2788
2505
2525
2653
2840
2858
2516
2522
2476
2881
2852
2796
2724
2494
2812
2472
2548
2894
2868
2524
2699
2832
2787
2716
2805
2889
2488
2585
2634
2612
2509
2816
2715
2775
2704
2517
2578
2600
2553
2568
2780
2837
2823
2652
2526
2560
2521
2694
2757
2701
2863
2685
2829
2720
2497
2708
2854
2738
2604
2683
2647
2492
2483
2541
2696
2475
2625
2891
2607
2717
2827
2680
2656
2593
2771
2571
2755
2828
2713
2547
2520
2536
2567
2679
2621
2693
2665
2836
2782
2676
2900
2839
2774
2756
2596
2518
2570
2726
2491
2528
2636
2765
2691
2773
2842
2825
2712
2785
2884
2557
2545
2767
2480
2833
2582
2869
2543
2501
2538
2849
2737
2733
2645
2687
2661
2643
2898
2641
2506
2743
2887
2807
2856
2899
2601
2876
2751
2892
2843
2677
2664
2657
2778
2659
2698
2697
2629
2847
2867
2558
2631
2866
2523
2511
2590
2610
2639
2777
2841
2512
2845
2565
2619
2623
2510
2533
2624
2496
2764
2498
2539
2758
2535
2668
2686
2702
2883
2818
2651
2861
2586
2804
2729
2555
2508
2622
2727
2813
2844
2709
2747
2885
2875
2769
2608
2809
2792
2797
2563
2820
2725
2766
2573
2606
2688
2763
2502
2762
2684
2556
2669
2695
2678
2819
2588
2855
2549
2644
2874
2627
2599
2880
2507
2583
2800
2878
2490
2790
2613
2531
2681
2637
2711
2649
2890
2740
2753
2477
2690
2529
2682
2504
2848
2648
2598
2857
2798
2666
2672
2706
2562
2581
2632
2485
2719
2723
2862
2830
2484
2646
2474
2789
2675
2673
2742
2670
2870
2542
2640
2735
2759
2584
2799
2794
2580
2540
2700
2495
2577
2611
2754
2514
2473
2569
2479
2587
2667
2831
2882
2821
2749
2731
2986
2826
2566
2707
2811
2544
2879
2982
2732
2822
2978
2802
2638
2838
2552
2906
3129
3110
2714
2803
2783
2850
2559
3360
2482
2718
2815
2972
2486
2597
2591
2674
2739
2493
2660
23
3190
2519
2939
3119
3376
2554
2471
2671
2592
3143
3310
3002
3279
2748
2478
2500
2654
2746
2722
2853
2752
3364
2534
2937
2793
2865
2768
2895
2728
2938
3049
3368
3371
3382
3321
3316
3055
3233
3146
3089
3349
2987
2998
3237
2975
3345
3117
3198
3357
3196
3097
3236
2974
3096
3218
3091
3156
3112
3286
3264
3124
3071
3312
2993
2914
3107
2912
3111
3115
3384
3163
2930
2925
2940
3095
3069
2970
2967
2960
3200
2958
3244
3015
3100
3165
3290
3142
2942
3274
3381
3195
3145
3122
3164
3292
3065
3369
3185
3181
3330
3201
3087
3000
2932
3182
2911
3088
3352
3296
3351
3007
3348
2977
3206
3320
3247
3033
3063
3141
3004
2971
3180
2903
3140
2919
3313
2964
3042
3151
3319
3230
3060
3024
3248
3315
3085
3072
3350
3179
3335
3341
3255
3258
3353
3301
2924
3204
3299
3021
3276
3031
3018
3219
3269
3212
2943
3259
3203
3059
3363
3041
3282
3013
3170
3098
3029
3362
3128
2968
3270
3249
3347
3287
2910
2947
3135
3300
2920
3058
3020
3147
3261
2928
3167
3157
3262
3317
3036
2913
2952
3076
2956
3050
3235
3303
3227
3121
3138
3184
3284
3174
3229
3066
3105
3148
3047
3234
2965
3057
3090
3030
3374
3103
3359
3342
2953
3367
2961
2997
3006
3383
2984
3056
3130
3168
3161
3160
3334
2931
3014
3297
3109
3332
3044
3120
3283
3295
2969
3064
3027
3155
3273
3370
3256
3026
3202
3344
3271
3093
3329
3193
3194
3242
3326
3159
3281
3149
3183
3177
3118
2935
3288
2976
2966
3012
3225
3275
3211
2992
3094
3173
3186
3053
3075
3231
3010
2981
3314
3294
3023
2948
3265
3046
2909
3372
3114
3086
2945
3078
3039
3240
3081
3068
3331
3224
3003
2991
3327
2941
3250
3220
3205
3043
2973
3040
3035
2927
3380
3308
2990
3158
3306
3131
3178
3199
3232
3343
2999
2929
3254
3084
2934
3291
3285
3022
3011
3378
3067
3298
3208
3171
3189
2957
3328
3377
2917
3099
3325
3304
2944
3272
3365
3241
3246
3034
3092
2962
2946
3268
3125
2994
3209
3366
3238
3074
3263
2951
3358
3082
2908
3032
3025
2915
2907
3197
3266
3106
3260
3278
2936
3136
2902
3210
3323
3172
3101
2980
3339
3008
2949
3061
3073
3192
3176
3153
2926
3188
3213
3019
3215
3337
3038
2954
2904
3245
3108
3123
3144
3116
3239
3302
3253
3191
3113
3154
2955
3340
3079
3324
3214
2988
3152
3037
3217
3379
3289
3267
3251
3104
3252
3051
2922
3048
3223
3216
3134
3169
2985
2923
3005
3346
3166
3361
3354
3226
3083
3077
3375
3001
3373
3028
3070
2989
3126
3052
2901
3045
3132
3080
3222
3318
3062
3277
3127
3307
3175
3338
3322
2918
3054
3016
3257
3137
75
75