# vtk DataFile Version 2.0
Edges zebra

ASCII
DATASET UNSTRUCTURED_GRID

POINTS 0148 double
     8.3668863     10.4967491 0.0
     5.8619263     13.3597908 0.0
     7.3824690     10.0045404 0.0
    13.2964059      8.7452218 0.0
     8.1859468      9.4111121 0.0
    12.1427450     13.9007975 0.0
    13.4170688      9.4691991 0.0
    14.0985370      9.7417863 0.0
    12.3529206      4.2543125 0.0
    10.6954816      6.7098089 0.0
    13.2821225      2.7675894 0.0
    19.3715176      5.7979869 0.0
     2.2408304      2.6708954 0.0
     4.9587941      4.6923051 0.0
     4.6923051      4.9587941 0.0
     4.3043824      7.6781058 0.0
     4.8792861      5.2860110 0.0
     9.8148639      6.2695000 0.0
     6.1061826      3.0531786 0.0
     3.0196774      1.7425705 0.0
     2.6708954      2.2408304 0.0
    10.7847976      3.4702511 0.0
    17.7452600      8.3999991 0.0
    14.2328360     16.6064180 0.0
    13.0780045     15.7082157 0.0
    11.9650485     13.8297188 0.0
    10.8521304     13.0913885 0.0
    11.0913885     12.8521304 0.0
    11.8297188     13.9650485 0.0
    10.5619873     13.2654743 0.0
    10.8728221     14.5391865 0.0
    19.7644749     14.1486269 0.0
    20.1673215     10.2838247 0.0
     6.5950116     13.7263334 0.0
     5.2243142      8.7329276 0.0
     9.0149726     14.2331937 0.0
     8.7700081     15.2130515 0.0
     6.9028862     16.5718599 0.0
     3.2665923     14.7462881 0.0
     6.3962259     14.5214760 0.0
     7.3578548     17.2543127 0.0
     9.3302633     16.0534342 0.0
     0.3618034     13.5326238 0.0
     0.8312539     15.4862569 0.0
    -0.3567572     15.0902532 0.0
     2.6437430     14.9076845 0.0
     0.6541556     16.7259445 0.0
     2.9076845     14.6437430 0.0
     1.8090170     13.1909830 0.0
     1.1909830     13.8090170 0.0
     4.4223375      8.5037914 0.0
     1.4365882     12.0954084 0.0
     1.0847341      9.1442468 0.0
     2.3395492      4.2396476 0.0
     0.3463827      6.9922949 0.0
     0.9209556      7.9977975 0.0
     9.2502555      7.0760835 0.0
    11.8234823     16.4609290 0.0
     6.7868916     17.3838226 0.0
     2.2321449     17.7888709 0.0
     2.7848893     18.1182093 0.0
     7.0597676     11.8804649 0.0
    10.8004740      9.5332543 0.0
    12.9109302     11.7226745 0.0
    12.9827346      6.4665583 0.0
    15.7872460      5.3670287 0.0
     3.6346960      3.6346960 0.0
     3.0534294      6.1123261 0.0
     7.4688952      5.2282266 0.0
     4.3023173      3.0116221 0.0
     3.6346960      3.6346960 0.0
    10.9520636      5.0958728 0.0
    15.7872460      5.3670287 0.0
    10.9520636      5.0958728 0.0
    16.0036657     13.1381441 0.0
    11.4293142     13.4293142 0.0
    11.0872451     13.8120751 0.0
    12.9109302     11.7226745 0.0
    11.0872451     13.8120751 0.0
    11.4293142     13.4293142 0.0
    16.0036657     13.1381441 0.0
    15.8736495     13.1159054 0.0
    16.9640754     11.9033316 0.0
     7.0597676     11.8804649 0.0
     6.8493756      8.4421014 0.0
     7.7111534     14.4277883 0.0
     4.9275440     15.9721859 0.0
     8.1059127     16.2627249 0.0
     7.7111534     14.4277883 0.0
     7.4422469     15.3507900 0.0
     8.1059127     16.2627249 0.0
     0.4881742     14.5354775 0.0
     2.0891042     16.2984435 0.0
     2.1072563     14.1072563 0.0
     0.4881742     14.5354775 0.0
     4.0716760     11.2491339 0.0
     1.6026413     14.7745049 0.0
     2.1072563     14.1072563 0.0
     3.7213587     12.4752444 0.0
     2.6595722      8.3343468 0.0
     5.2947457     11.0805868 0.0
     4.0716760     11.2491339 0.0
     3.0534294      6.1123261 0.0
     2.4805503      6.4396856 0.0
     2.6595722      8.3343468 0.0
     7.4688952      5.2282266 0.0
     7.4159517      5.3235396 0.0
     5.0000000      5.0000000 0.0
     0.0000000      0.0000000 0.0
    10.0000000      7.0000000 0.0
    10.5237588      9.0666186 0.0
    10.7694072      9.2948282 0.0
    10.8004740      9.5332543 0.0
    12.0000000      3.0000000 0.0
    20.0000000      8.0000000 0.0
    13.0000000     17.0000000 0.0
    10.0000000     12.0000000 0.0
    11.9279452     15.2132420 0.0
    12.2078808     15.0127795 0.0
    12.0000000     14.0000000 0.0
    15.4626432      7.8227240 0.0
    15.3193154      5.9756711 0.0
    14.0000000      9.0000000 0.0
     8.0000000     10.0000000 0.0
     4.8247054     14.5405590 0.0
     6.0000000     14.0000000 0.0
    10.0000000     15.0000000 0.0
     7.0000000     17.0000000 0.0
     0.0000000     16.0000000 0.0
     1.0000000     13.0000000 0.0
     2.0891042     16.2984435 0.0
     3.3844101     16.4834872 0.0
     4.5847599     16.6549657 0.0
     3.0000000     15.0000000 0.0
     6.2763164      6.8868981 0.0
     5.0000000      8.0000000 0.0
     6.7970455      6.8347744 0.0
     7.0671475      7.4910913 0.0
    -2.0000000      9.0000000 0.0
     4.3023173      3.0116221 0.0
    16.9640754     11.9033316 0.0
    11.9279452     15.2132420 0.0
     3.3844101     16.4834872 0.0
     4.5847599     16.6549657 0.0
     3.7213587     12.4752444 0.0
     2.4805503      6.4396856 0.0
    -3.1000000     -0.8500000 0.0
    21.1000000     17.8500000 0.0
CELLS 0257 0769
2 1 2
2 2 0
2 4 3
2 7 5
2 3 9
2 10 11
2 11 8
2 12 13
2 13 14
2 14 12
2 15 14
2 17 13
2 18 17
2 19 13
2 12 20
2 20 13
2 21 9
2 9 17
2 17 21
2 11 22
2 22 8
2 21 8
2 8 9
2 7 23
2 23 24
2 25 26
2 27 25
2 28 29
2 29 26
2 6 5
2 5 25
2 25 6
2 30 29
2 28 26
2 31 23
2 7 24
2 7 22
2 1 0
2 0 33
2 34 4
2 4 2
2 35 36
2 36 33
2 33 35
2 38 39
2 40 36
2 41 40
2 39 33
2 36 39
2 37 39
2 40 37
2 37 36
2 42 43
2 44 42
2 45 46
2 46 43
2 45 48
2 48 47
2 42 49
2 49 43
2 50 1
2 51 50
2 45 43
2 45 49
2 47 51
2 51 38
2 38 47
2 52 15
2 15 50
2 50 52
2 34 2
2 34 1
2 53 14
2 54 15
2 52 55
2 55 15
2 56 13
2 56 16
2 16 13
2 16 14
2 12 19
2 19 20
2 56 17
2 4 56
2 56 9
2 4 9
2 3 6
2 6 0
2 0 3
2 21 10
2 10 8
2 32 22
2 11 32
2 23 57
2 57 24
2 27 26
2 29 27
2 28 24
2 28 5
2 5 24
2 28 25
2 7 3
2 3 22
2 3 8
2 7 6
2 4 0
2 38 1
2 1 39
2 1 33
2 35 41
2 41 36
2 40 58
2 58 37
2 46 44
2 44 43
2 42 48
2 48 49
2 59 46
2 59 38
2 60 59
2 38 37
2 45 47
2 34 15
2 15 16
2 34 50
2 34 16
2 34 56
2 54 55
2 52 54
2 19 18
2 18 13
2 32 31
2 31 7
2 7 32
2 57 30
2 30 28
2 28 57
2 59 45
2 45 38
2 58 60
2 60 38
2 38 58
2 51 1
2 54 53
2 53 15
2 99 104
2 99 135
2 62 112
2 62 123
2 62 111
2 71 73
2 71 109
2 134 136
2 134 135
2 102 145
2 79 119
2 106 136
2 106 107
2 110 111
2 110 137
2 136 137
2 80 140
2 78 141
2 104 138
2 66 70
2 66 107
2 100 101
2 91 94
2 91 128
2 83 125
2 70 108
2 93 133
2 93 97
2 97 129
2 117 141
2 117 118
2 118 119
2 95 101
2 95 144
2 133 142
2 77 119
2 85 126
2 85 88
2 120 122
2 120 121
2 96 97
2 94 129
2 94 96
2 103 145
2 103 104
2 103 138
2 76 78
2 76 116
2 76 79
2 112 122
2 87 90
2 87 126
2 82 114
2 82 140
2 82 120
2 105 106
2 105 109
2 73 113
2 92 130
2 92 128
2 92 96
2 67 102
2 67 107
2 67 134
2 72 114
2 72 121
2 90 127
2 109 110
2 89 90
2 124 144
2 124 125
2 132 143
2 75 79
2 75 116
2 65 113
2 65 72
2 98 144
2 98 133
2 86 132
2 86 124
2 86 89
2 81 118
2 131 142
2 131 143
2 84 137
2 84 123
2 84 100
2 68 105
2 68 139
2 63 77
2 63 122
2 63 81
2 130 142
2 115 117
2 64 121
2 64 111
2 64 73
2 61 83
2 61 100
2 61 123
2 127 132
2 101 135
2 69 139
2 69 70
2 69 108
2 74 80
2 74 115
2 74 81
2 88 125
2 88 89
1 255
1 256
CELL_TYPES 0257
3
3
3
3
3
3
3
3
3
3
3
3
3
3
3
3
3
3
3
3
3
3
3
3
3
3
3
3
3
3
3
3
3
3
3
3
3
3
3
3
3
3
3
3
3
3
3
3
3
3
3
3
3
3
3
3
3
3
3
3
3
3
3
3
3
3
3
3
3
3
3
3
3
3
3
3
3
3
3
3
3
3
3
3
3
3
3
3
3
3
3
3
3
3
3
3
3
3
3
3
3
3
3
3
3
3
3
3
3
3
3
3
3
3
3
3
3
3
3
3
3
3
3
3
3
3
3
3
3
3
3
3
3
3
3
3
3
3
3
3
3
3
3
3
3
3
3
3
3
3
3
3
3
3
3
3
3
3
3
3
3
3
3
3
3
3
3
3
3
3
3
3
3
3
3
3
3
3
3
3
3
3
3
3
3
3
3
3
3
3
3
3
3
3
3
3
3
3
3
3
3
3
3
3
3
3
3
3
3
3
3
3
3
3
3
3
3
3
3
3
3
3
3
3
3
3
3
3
3
3
3
3
3
3
3
3
3
3
3
3
3
3
3
3
3
3
3
3
3
3
3
3
3
3
3
2
2
CELL_DATA 0257
SCALARS edge int 1
LOOKUP_TABLE default
100
100
100
100
100
60
100
100
100
60
100
100
60
100
100
100
100
100
60
100
100
100
100
100
100
100
60
100
100
100
100
60
60
100
60
100
100
100
60
100
100
100
100
60
100
100
60
100
100
100
100
100
100
60
100
100
100
60
100
100
100
60
100
100
60
100
100
100
100
60
100
100
60
100
100
100
100
100
100
100
60
100
100
100
100
100
100
60
100
60
100
100
60
60
100
100
60
100
100
100
100
100
100
100
100
100
100
100
100
60
100
60
100
60
100
60
100
60
100
60
100
100
100
100
100
100
100
100
60
60
100
60
100
100
60
100
100
100
100
60
100
100
100
60
100
0
0
0
0
0
0
0
0
0
0
0
0
0
0
0
0
0
0
0
0
0
0
0
0
0
0
0
0
0
0
0
0
0
0
0
0
0
0
0
0
0
0
0
0
0
0
0
0
0
0
0
0
0
0
0
0
0
0
0
0
0
0
0
0
0
0
0
0
0
0
0
0
0
0
0
0
0
0
0
0
0
0
0
0
0
0
0
0
0
0
0
0
0
0
0
0
0
0
0
0
0
0
0
0
0
0
0
0
0
0
75
75