# vtk DataFile Version 2.0
Edges maltese

ASCII
DATASET UNSTRUCTURED_GRID

POINTS 5634 double
    -1.3790919     -0.0212416 0.0
    -1.4631677     -0.1025622 0.0
    -1.3676563     -0.1651195 0.0
    -1.4385887     -0.2413098 0.0
    -1.3386840     -0.2053721 0.0
    -1.2961238      0.0010840 0.0
    -1.4723805     -0.1849499 0.0
    -1.3004867     -0.2088107 0.0
    -1.3599285     -0.2708852 0.0
    -1.5413155     -0.1419927 0.0
    -1.5814870     -0.2401644 0.0
    -1.5464381     -0.0627697 0.0
    -1.4861876      0.0185962 0.0
    -1.5438566     -0.1434660 0.0
    -1.4830792     -0.3345792 0.0
    -1.4183730     -0.2846960 0.0
    -1.6163450     -0.1399550 0.0
    -1.6909020     -0.1848924 0.0
    -1.5903210     -0.3628682 0.0
    -1.7745911     -0.0709413 0.0
    -1.6406700     -0.4733080 0.0
    -1.5843319     -0.4243356 0.0
    -1.5353177     -0.5148319 0.0
    -1.9324472     -0.0426160 0.0
    -1.9937504      0.0128143 0.0
    -2.0000000      0.0000000 0.0
    -1.7390771      0.0008817 0.0
    -1.8518026     -0.4425420 0.0
    -1.0000000      0.0000000 0.0
    -1.8020366     -0.1564890 0.0
    -1.8531302      0.0093460 0.0
    -1.9446295     -0.0992664 0.0
    -1.6999743     -0.5813407 0.0
    -1.7946231      0.0341083 0.0
    -1.8791147     -0.4150362 0.0
    -1.6768997     -0.6152443 0.0
    -1.6753727      0.0343625 0.0
    -1.7978717     -0.6334049 0.0
    -1.7071068     -0.7071068 0.0
    -1.8577634     -1.3198850 0.0
    -1.8363794     -1.2608688 0.0
    -1.9871400     -1.1487176 0.0
    -1.8267972     -1.1954299 0.0
    -1.8654703     -1.1292855 0.0
    -1.9775349     -1.4437478 0.0
    -1.7842450     -1.2662156 0.0
    -1.8837452     -1.4364533 0.0
    -1.7608216     -1.1275268 0.0
    -1.8452970     -1.0696322 0.0
    -1.8611763     -1.0572940 0.0
    -1.9960028     -1.4684100 0.0
    -1.7814399     -1.0361722 0.0
    -1.7847226     -0.9900783 0.0
    -1.9299236     -0.8946726 0.0
    -1.9010316     -0.8952738 0.0
    -1.7994782     -0.7451146 0.0
    -1.9366772     -0.8406370 0.0
    -1.9756942     -0.8092431 0.0
    -1.7525211     -0.7844998 0.0
    -1.8813796     -0.6994460 0.0
    -1.8702728     -1.5847732 0.0
    -1.8640991     -0.5876852 0.0
    -1.9352290     -0.6678146 0.0
    -1.6333673     -0.7340482 0.0
    -1.6780303     -0.9209332 0.0
    -1.9225414     -0.5346508 0.0
    -1.9985135     -0.5309915 0.0
    -1.9813944     -0.5300466 0.0
    -2.0000000     -2.0000000 0.0
    -1.9876886     -1.7963258 0.0
    -1.8779188     -1.6054612 0.0
    -1.8368510     -1.3859326 0.0
    -1.9605458     -0.3812883 0.0
    -1.9595604     -0.2763635 0.0
    -1.9794626     -0.3459938 0.0
    -1.9636023     -0.1833761 0.0
    -0.7470198     -1.2362204 0.0
    -0.7744842     -1.2071582 0.0
    -0.8205337     -1.2604654 0.0
    -0.9387336     -1.0778533 0.0
    -0.8930601     -1.2806372 0.0
    -0.8773635     -1.3362154 0.0
    -0.8231520     -1.3525826 0.0
    -0.7152141     -1.1053368 0.0
    -0.9634570     -1.2872445 0.0
    -0.9295357     -1.3321894 0.0
    -0.8987182     -1.3935835 0.0
    -0.6071254     -1.1441384 0.0
    -0.6385613     -1.3608775 0.0
    -0.7104792     -1.4455299 0.0
    -1.0039038     -1.3586661 0.0
    -0.5922613     -1.1580694 0.0
    -0.6536619     -1.0843916 0.0
    -0.5595891     -1.2317507 0.0
    -0.5882849     -1.0515886 0.0
    -0.9344992     -1.0180404 0.0
    -0.5865151     -1.4082000 0.0
    -0.5868061     -1.3661474 0.0
    -1.0751714     -1.2957019 0.0
    -0.8021108     -0.9129532 0.0
    -1.0705369     -1.1248315 0.0
    -0.5497474     -1.0889769 0.0
    -0.6625726     -0.9444456 0.0
    -0.5145991     -1.1396516 0.0
    -0.5442160     -1.0757368 0.0
    -1.0440069     -1.0675217 0.0
    -1.1121697     -1.3065111 0.0
    -1.0870512     -1.3175201 0.0
    -0.5554818     -0.9996552 0.0
    -0.6153945     -0.9821382 0.0
    -1.0802954     -1.3594308 0.0
    -1.0448826     -1.4198301 0.0
    -0.8228553     -1.5707158 0.0
    -1.0219453     -1.0158586 0.0
    -1.0618023     -1.0837556 0.0
    -0.4522664     -1.0214457 0.0
    -0.5463056     -1.0276820 0.0
    -0.6559615     -0.9326453 0.0
    -0.7310299     -0.9229757 0.0
    -1.0281800     -1.5349423 0.0
    -0.6531389     -1.5691692 0.0
    -1.0885166     -0.9539665 0.0
    -1.0427365     -0.9058712 0.0
    -1.1086066     -1.0227491 0.0
    -1.1134941     -1.4473017 0.0
    -1.0698589     -1.4489908 0.0
    -1.1271363     -1.3433242 0.0
    -1.1499264     -1.1426290 0.0
    -1.2793941     -1.3185926 0.0
    -0.5534435     -0.9407446 0.0
    -0.8109156     -0.7698627 0.0
    -1.0919793     -1.4705883 0.0
    -0.5044957     -0.9496024 0.0
    -0.6851385     -0.7336368 0.0
    -1.1354234     -1.4243267 0.0
    -0.9027467     -1.6680627 0.0
    -0.8278628     -1.6322156 0.0
    -0.7623677     -1.6351550 0.0
    -0.7814216     -1.6463590 0.0
    -1.1967996     -1.4893655 0.0
    -1.0275073     -1.5685564 0.0
    -0.5057144     -0.9434996 0.0
    -0.6152325     -0.7767532 0.0
    -1.1995800     -1.1009524 0.0
    -1.1621060     -1.0155396 0.0
    -1.2861253     -1.2005875 0.0
    -0.9764864     -1.6444828 0.0
    -0.7998507     -1.7247866 0.0
    -1.2564574     -1.0695590 0.0
    -1.1844046     -0.9234732 0.0
    -0.9549309     -1.7614037 0.0
    -1.0278192     -1.8075982 0.0
    -0.7071068     -1.7071068 0.0
    -0.5646854     -0.7867833 0.0
    -0.8993614     -1.7654175 0.0
    -0.8637154     -1.7162279 0.0
    -0.4664230     -0.7547536 0.0
    -1.0807093     -0.8305669 0.0
    -0.6361346     -0.6686936 0.0
    -0.9132906     -0.6352601 0.0
    -1.3279497     -1.1009349 0.0
    -1.3098487     -1.2018079 0.0
    -1.3349004     -1.2556018 0.0
    -0.8148459     -0.7069911 0.0
    -1.2053592     -1.6441846 0.0
    -0.8069881     -1.7712939 0.0
    -0.7419631     -1.7600761 0.0
    -1.3778631     -1.5549643 0.0
    -1.3853789     -1.2095092 0.0
    -1.3529776     -1.0422569 0.0
    -1.4176232     -1.4768965 0.0
    -0.5899025     -0.6710365 0.0
    -0.3412670     -0.7844998 0.0
    -1.3847798     -1.1216785 0.0
    -1.4033140     -1.3499821 0.0
    -1.2972513     -0.8970319 0.0
    -1.2603123     -0.7792194 0.0
    -1.4499734     -1.0936704 0.0
    -1.4517049     -1.1532939 0.0
    -0.8766294     -0.6112801 0.0
    -0.8416816     -0.5699098 0.0
    -1.4155388     -1.2170759 0.0
    -1.4519730     -1.2836307 0.0
    -0.5256992     -0.5443175 0.0
    -0.5975888     -0.6046031 0.0
    -0.6894838     -0.5298266 0.0
    -0.9983001     -0.5678021 0.0
    -1.0319029     -0.6476730 0.0
    -1.3608428     -0.7600705 0.0
    -1.3519315     -0.9032845 0.0
    -1.5355662     -1.1739722 0.0
    -1.2082870     -0.7294500 0.0
    -1.0772573     -0.6421606 0.0
    -0.5005651     -0.5437669 0.0
    -1.4514171     -1.4524079 0.0
    -0.9240406     -0.5479164 0.0
    -1.2684570     -1.7343525 0.0
    -1.2455432     -1.7437162 0.0
    -1.4782754     -0.9265709 0.0
    -1.3788137     -1.7098277 0.0
    -1.4489754     -1.6487169 0.0
    -1.4212341     -1.6756935 0.0
    -1.4977905     -1.3051032 0.0
    -1.2433241     -0.6459778 0.0
    -0.9362709     -0.4503144 0.0
    -0.8201367     -0.4301379 0.0
    -0.5934035     -0.5314486 0.0
    -0.3303564     -0.6681403 0.0
    -1.3651606     -0.6840423 0.0
    -1.5486650     -0.9939738 0.0
    -1.1868702     -0.5539324 0.0
    -1.5236686     -1.5372895 0.0
    -1.3351280     -1.8950050 0.0
    -0.5290963     -0.4881250 0.0
    -1.0241100     -0.5120956 0.0
    -1.1121878     -0.5624771 0.0
    -1.4579618     -0.8820274 0.0
    -1.5162769     -1.5119437 0.0
    -1.6225598     -1.4790579 0.0
    -1.6171843     -1.5040995 0.0
    -1.5645465     -1.5747908 0.0
    -0.6606974     -0.4345326 0.0
    -0.5304659     -0.4590232 0.0
    -0.4174291     -0.4559649 0.0
    -1.2027921     -0.5283881 0.0
    -1.4505427     -1.7056857 0.0
    -1.4329864     -1.7187951 0.0
    -1.5158867     -0.9008936 0.0
    -1.5616849     -0.9803453 0.0
    -1.4739147     -0.7314687 0.0
    -1.5752790     -0.8622035 0.0
    -1.4699655     -1.7029100 0.0
    -0.7717901     -0.3864444 0.0
    -1.5822309     -1.0014509 0.0
    -1.4878723     -1.6714511 0.0
    -1.4737761     -1.7840480 0.0
    -0.9256326     -0.3872592 0.0
    -1.6258519     -0.9771714 0.0
    -1.6802831     -1.3609124 0.0
    -0.8160822     -0.3965205 0.0
    -0.7646270     -0.3694037 0.0
    -1.5328397     -0.6689760 0.0
    -1.6380599     -1.1353620 0.0
    -1.6393338     -1.4663100 0.0
    -0.6465286     -0.3008954 0.0
    -1.5510035     -1.7384947 0.0
    -1.4437607     -1.8172852 0.0
    -1.1927624     -1.8187072 0.0
    -0.5542725     -0.3759449 0.0
    -1.6290081     -1.4921660 0.0
    -1.6349401     -1.7268559 0.0
    -0.3602885     -0.3695402 0.0
    -0.4224107     -0.4346449 0.0
    -1.6615834     -1.5794519 0.0
    -1.7771484     -1.5640462 0.0
    -1.5063441     -1.8680564 0.0
    -1.7164349     -1.6097892 0.0
    -0.2341792     -0.4846771 0.0
    -0.4665586     -0.2397161 0.0
    -1.6137819     -0.7761970 0.0
    -1.5894607     -0.6820777 0.0
    -1.6041207     -0.7303359 0.0
    -1.6877315     -1.7906045 0.0
    -1.2609067     -1.9035159 0.0
    -0.3859508     -0.3132738 0.0
    -0.2478043     -0.4035220 0.0
    -0.3709582     -0.2962991 0.0
    -0.1823146     -0.4210054 0.0
    -0.2942166     -0.2759833 0.0
     0.0000000      0.0000000 0.0
    -1.7803159     -1.5918667 0.0
    -1.7273529     -1.6884067 0.0
    -0.4399420     -0.2325582 0.0
    -0.2527025     -0.1250689 0.0
    -1.6985312     -1.7956208 0.0
    -1.6976389     -1.8305871 0.0
    -1.7975318     -1.8301842 0.0
    -0.3594226     -0.2314867 0.0
    -0.1376724     -0.3056232 0.0
    -1.6676789     -1.9162644 0.0
    -1.7379845     -1.9259931 0.0
    -0.1432418     -0.2832138 0.0
    -0.2345423     -0.1334996 0.0
    -1.9404517     -1.9349955 0.0
    -1.9901547     -1.9692349 0.0
    -1.5205266     -1.9872481 0.0
    -0.2557800     -1.5841949 0.0
    -0.2735229     -1.5125566 0.0
    -0.3183980     -1.6196156 0.0
    -0.2530054     -1.4957180 0.0
    -0.2949502     -1.4570080 0.0
[...]
POINT_DATA 5634
SCALARS edge int 1
LOOKUP_TABLE default
48
59
51
46
56
5136
40
47
50
54
37
57
5153
49
36
42
35
41
45
44
53
38
34
52
5155
8
5209
87
19
39
5167
55
43
5205
73
58
5134
71
9
85
70
82
65
90
68
287
69
237
64
89
79
195
80
63
76
66
88
83
67
60
258
62
78
276
249
61
72
81
11
74
200
138
84
77
86
75
152
94
104
221
273
117
247
292
244
179
111
132
101
102
107
283
218
186
153
199
278
226
120
241
100
291
169
106
282
151
123
233
96
136
116
227
215
105
130
284
210
198
219
268
206
178
267
229
145
164
265
171
277
264
155
236
170
252
141
208
294
163
161
296
148
263
238
173
298
261
135
212
270
220
95
357
1
248
358
180
193
168
256
240
275
246
183
91
235
338
346
295
274
288
97
154
260
230
224
182
257
196
253
146
150
142
174
213
280
147
266
124
289
113
285
190
251
172
126
245
119
232
290
149
92
201
98
228
187
188
202
217
279
192
225
207
341
115
231
189
197
159
127
157
185
112
222
271
286
259
93
160
133
125
99
216
114
122
121
108
194
139
281
205
243
203
214
262
167
191
131
340
176
181
110
177
239
297
118
254
242
144
156
129
137
255
234
336
158
134
166
269
165
4
109
162
204
143
128
184
140
175
209
103
223
293
272
211
250
339
317
325
329
309
312
304
320
308
313
328
301
310
306
321
324
303
305
314
330
326
307
322
332
327
311
318
300
356
360
331
315
323
335
2
10
302
316
319
299
352
349
359
347
354
343
334
337
342
350
345
355
353
351
348
361
333
344
624
547
545
451
511
478
548
486
400
366
639
710
688
399
531
687
406
552
671
487
694
543
541
507
501
466
579
700
405
591
443
369
475
553
454
540
489
581
413
673
469
608
408
593
573
427
491
691
644
425
564
490
663
556
528
667
640
380
402
626
649
628
637
450
596
656
479
533
627
502
457
565
473
442
525
449
554
587
585
467
711
395
569
679
393
582
661
630
472
601
653
669
618
392
448
407
657
503
689
419
680
563
387
434
385
652
607
424
386
530
374
588
372
516
431
510
634
445
577
706
397
697
643
660
379
654
619
377
420
571
701
362
609
538
632
447
455
698
370
558
592
622
534
650
555
411
599
583
513
678
537
410
568
562
463
375
614
403
584
664
480
695
662
693
629
702
658
532
672
674
692
707
483
498
529
383
567
595
415
441
690
371
677
617
625
559
426
594
704
364
597
682
506
433
470
546
373
651
615
509
550
576
471
416
655
709
668
381
398
494
676
417
575
505
437
586
570
515
438
430
670
544
452
394
683
610
590
518
641
646
432
444
598
500
578
535
635
685
647
612
642
621
631
600
485
696
522
659
423
365
560
686
504
566
508
521
492
517
382
523
684
476
384
388
484
459
389
497
396
620
512
638
648
421
539
524
551
464
616
527
526
606
461
367
514
633
482
705
666
675
574
561
436
412
376
636
613
429
703
414
681
390
460
488
363
580
572
468
446
391
604
401
549
465
665
611
542
428
17
708
605
985
723
885
645
536
919
887
520
976
462
422
439
368
499
602
495
477
378
435
519
603
699
440
496
493
755
872
557
474
764
409
404
972
589
453
929
458
861
456
481
782
623
892
418
960
971
893
760
956
712
801
753
803
907
815
986
895
875
939
966
924
921
882
724
963
785
740
863
930
818
735
857
961
775
992
844
997
854
837
777
732
736
842
855
910
905
783
850
754
770
933
831
984
917
898
718
873
756
812
824
948
1984
920
859
993
983
847
942
713
894
717
999
739
822
878
845
941
925
841
729
908
730
819
725
870
742
791
880
991
727
903
989
774
763
804
896
807
937
808
744
901
738
814
977
793
848
853
962
728
1011
714
964
970
825
829
865
871
869
866
802
731
759
916
746
811
843
839
715
965
951
765
780
913
781
904
954
949
958
789
988
726
733
835
773
745
849
936
792
928
805
868
761
953
851
737
889
790
912
722
995
796
998
931
806
2500
943
955
719
975
823
826
820
890
800
959
836
974
788
886
902
858
1000
932
771
834
772
799
906
990
767
947
874
747
994
856
900
2271
1843
862
946
769
957
798
787
743
1106
864
981
2389
1472
762
888
832
809
846
741
852
757
860
2407
891
830
897
987
980
776
840
922
720
934
969
1441
813
944
945
2348
751
909
982
2069
1302
2221
967
918
778
833
938
821
721
867
794
979
752
996
978
817
923
952
881
1688
1744
748
2787
879
750
734
795
786
810
968
884
876
749
1932
797
1530
828
914
940
883
927
838
766
911
779
758
877
950
1778
2823
816
899
935
1785
784
926
973
1989
1222
827
915
2803
716
2122
18
768
2693
1718
2006
2014
2784
2494
2674
1986
1427
2463
2830
1256
1563
1549
2835
1365
1089
1733
1709
2824
1411
1030
1447
2749
1323
1937
2371
2783
1650
1698
2248
2431
2958
2236
2545
1626
2555
1297
2636
1960
1842
2863
2180
2002
1299
1129
1421
1489
1746
2297
2991
2322
1760
1790
1787
1036
2673
2375
1048
2992
2567
2369
2099
1085
2858
2487
1217
1247
1054
2718
2706
2720
2995
2005
2220
1239
1598
1858
2405
1768
1949
1692
2940
1032
1439
2032
2092
1545
2771
2630
1132
1933
2475
2642
1006
1087
2956
2925
1052
2253
2365
2311
1771
2021
1186
2076
2345
2306
1234
1859
1381
2077
2162
2131
1758
2560
1003
1681
2224
2218
1120
1133
1391
1109
1350
2208
2794
1044
1500
2447
1887
1575
1480
2456
2449
2832
2372
1602
2104
1399
1140
1142
1946
2448
1401
2173
1405
2047
2291
2107
1182
2680
2947
2793
2715
2581
2659
2578
2320
2826
1105
1800
1985
2304
2024
2816
2605
2347
1568
2082
2246
2155
2261
1147
1095
1301
1324
1693
2003
1168
1782
2512
2879
1493
1038
2908
1224
1075
2343
1362
2984
1262
2227
2836
1331
2379
2219
1685
1191
2165
2112
1282
2121
2352
2549
1456
2867
2981
1964
2678
1083
3508
2399
2839
1678
1880
3420
2202
2374
1009
2675
2325
2777
1137
1617
1505
1780
2181
2045
1146
1351
2034
2001
2765
2273
3594
2386
1977
1668
1917
1488
2324
2613
1980
2009
1438
1313
2053
1128
1383
2506
2334
2150
1361
1019
2477
1113
2161
2175
2568
2454
2460
1180
2166
2286
1039
2490
2195
2689
2656
1309
2177
2875
1339
2318
2377
1893
3478
3607
1822
2106
1582
1695
1896
2922
1975
1261
1913
2982
2503
2338
2707
2672
3489
1523
1770
1663
2183
2225
1809
1850
2434
1390
1566
2473
1098
2199
2993
1283
1745
2999
2952
2814
1097
2265
1419
2519
2254
1773
2966
1672
2136
2617
1837
2628
2843
2710
1874
1831
2040
1689
1279
1018
3000
1728
2100
1292
2120
2438
3437
2760
1616
2426
2171
1196
2546
1017
2483
2142
1830
1214
1990
1605
2721
1965
1433
1410
1055
1124
1892
1155
2900
2134
1629
3399
2211
3462
2776
2933
1338
2390
1548
1431
2566
1945
1889
1776
1995
2018
2876
2080
1847
1564
2896
2944
1143
1074
1064
2328
1119
2008
2115
2785
2542
2724
2847
1799
2152
1228
2584
1606
1763
2430
2084
1551
1380
1455
2645
2312
1658
2459
2957
2340
2649
1385
2143
2295
2886
1503
1957
1931
2694
3524
2373
1069
2234
1148
2701
1927
2398
1959
1921
2799
2029
1404
1645
2750
1308
1300
2081
2534
2270
1867
1716
1527
1199
2269
2917
1306
1252
2193
2597
1504
2435
1674
1691
2346
1046
1516
2926
2215
2871
2050
1415
2606
1627
2403
1482
2682
2877
1848
2496
1077
1096
2807
2849
1852
1093
3370
1872
2042
1956
2125
2073
2866
2996
1485
1461
1581
2416
1529
1993
2427
2654
1951
2057
2501
1817
2395
1392
1612
2400
2864
1816
2697
1366
2798
2621
1460
1210
2209
3518
2669
2736
2036
2105
2404
1387
1682
1544
1725
2392
1197
2525
2553
1495
2614
2574
3637
1246
1795
2118
1079
1274
1765
2965
2834
2191
2222
2754
2733
2598
1902
2757
2038
2756
3551
1973
1376
1446
2239
1781
1748
1164
2775
1757
2000
2587
2453
2845
1863
2840
2920
1407
1999
2526
1398
1430
2164
1947
1227
1491
2852
1526
1855
2163
1730
1898
2540
1571
3583
2690
2441
2293
1243
1577
2808
2637
2648
1188
1662
2890
2851
2482
2620
1719
2988
1015
2818
2035
1779
2462
2344
1322
2874
1343
1532
2493
2913
1211
1752
2980
2137
1924
1110
2154
2631
2663
2133
1684
2548
1161
1614
2089
1686
2521
1478
2954
2233
2762
2667
2609
2873
3003
1572
2870
1574
1406
2878
3555
3377
2576
2182
1231
1112
2554
2126
1966
2639
1938
1449
1484
1670
1772
1358
1754
2289
2907
2354
2515
1703
1955
2065
1320
2424
2394
2481
2128
1198
1296
2782
1288
1638
1536
2752
2815
1888
2022
2583
2948
1273
2148
2745
2302
2072
2535
1592
2484
2096
1291
1240
1630
1326
2210
3563
1345
1591
1175
1277
1620
1697
1056
2677
1092
2615
2704
2085
1969
1286
2041
1205
1153
1187
2593
2113
1833
1233
2582
2552
1547
2498
2923
2444
1020
2437
2086
2384
2094
1819
1829
2977
2626
2638
1962
2700
2505
2516
2974
2443
2385
2327
2476
1179
2007
2899
1588
1992
2200
1065
1923
1229
1004
1534
2698
2146
1209
1756
1654
2466
2959
1546
1586
1884
1666
2976
2563
1713
1035
1561
1506
1501
1792
1378
2941
2805
1080
2020
1397
1219
1384
2480
2971
2479
1284
3424
3501
3436
2194
1496
2602
1926
1714
2934
1418
1939
1130
1185
1543
1624
1928
1559
1643
2679
1316
1352
2255
1475
1906
2897
1944
2381
1838
1839
1315
2946
2887
2353
1021
3561
1360
2579
1736
1189
2624
1886
2256
1453
1870
2282
2078
2623
2170
1070
2260
2238
1183
2452
2046
2740
1337
2538
2844
1436
2283
2821
2703
1531
1492
2058
1715
2258
2499
1176
2229
1091
2916
2970
1251
1940
2362
1281
2129
2051
1827
2064
2591
2742
3532
1537
2138
1507
3493
3471
1905
1909
1487
2712
1724
1287
1319
2580
1158
1321
1033
1184
2190
1625
1034
1998
1907
2709
1171
2670
1607
1866
1511
2541
2910
2635
1278
2468
2387
2758
3006
1929
2474
2504
1257
3645
3623
2511
1558
2575
1512
1226
2319
1637
1466
1359
1862
1700
1356
1355
2485
2205
2611
2101
2788
1805
1223
1250
2774
1218
1802
1029
1206
2329
2961
1370
2986
1416
2206
1138
2731
1026
1377
2378
1704
1242
1159
1611
2090
1515
1268
1791
7
2030
2711
2651
2056
2031
2622
2114
1066
1108
2337
1253
1642
1193
1717
2025
1789
2837
1796
1170
1828
2653
2296
2250
1657
1565
1126
2203
2859
2116
2812
1935
1916
2497
1820
2588
2066
1244
2686
1521
2048
2333
2763
2531
1597
2465
1117
2751
2594
2396
2423
1037
2326
1644
2596
2994
1578
1165
1899
2361
1473
1660
1687
1012
2625
1434
2420
1849
2196
1215
2011
2746
2178
1836
2618
1332
2144
2467
3474
3584
3406
1050
1631
2960
3455
1665
2457
2167
1659
1238
1669
1160
1420
2141
1190
1260
2350
1603
1978
1846
1737
1794
1111
2331
2810
1426
1594
1593
1090
1027
2284
1750
1769
2251
1255
2492
2780
2241
1539
1163
2772
1878
1068
1729
2070
1476
2608
1810
1115
2010
2562
2310
2943
1425
1876
1904
1333
1751
1494
1601
2585
2884
3001
1428
2935
1454
2147
2643
2495
1241
1305
1245
2529
1832
2132
2287
1474
2764
1696
1181
1028
2589
2409
2518
1442
2695
2687
1894
1349
1941
2151
1202
2921
2831
2904
1458
2110
1216
2939
2536
2616
1912
1134
1528
2298
2828
1632
1974
1919
1412
1265
1676
1443
1514
2998
2279
2440
2313
1486
1702
2714
1334
2349
1677
2226
1371
1811
2439
2892
1145
1058
2759
1813
1608
1936
2445
2442
1825
2767
2263
2603
1294
2938
2891
2414
2532
1204
1633
1920
1854
1481
2769
1583
1784
2339
2530
1885
2569
1707
2822
1653
3007
2091
2402
1200
1264
2696
1739
2683
1432
2850
2953
1290
1304
2743
2015
1971
1393
1437
2931
2004
1341
1307
2244
1318
1918
1821
3002
2862
1007
1041
2975
1363
1280
1879
2140
1230
2882
1156
1675
1596
2174
2257
2930
1623
2528
1518
2911
2725
2619
1595
1584
2543
1667
2688
1344
1576
2658
1535
2809
1900
2951
2869
1656
1755
1379
2299
2314
1690
1118
1340
3004
2729
2829
1954
2259
2610
2243
2633
1590
2023
2590
1348
1557
1483
2292
1502
2854
2985
2397
1869
1540
1059
1683
1368
2741
1720
1509
1806
1071
2189
2778
2135
2514
2708
1710
1295
1293
1618
2932
1357
2275
1375
2351
1788
1289
2184
1479
2902
2627
2247
1403
1533
1553
2979
2478
2363
2640
1270
1740
2885
2410
1680
2212
1082
1010
2650
2533
1259
2502
2937
2599
2987
2601
1655
1084
1569
2169
1679
1538
2848
1747
2773
1354
1088
2595
1651
2160
1610
2158
2895
1094
2088
1285
2087
2929
2242
2098
2561
1317
2510
2187
1976
2368
2360
2558
2232
1661
2949
2666
1952
2537
1891
1463
1266
1102
2945
2472
2419
2880
1727
1705
2508
1723
2489
2861
1043
2901
1560
2604
2962
1599
1417
2418
1328
2033
2833
1580
1471
1131
2071
2145
1312
2095
1712
2699
1462
2278
1743
1524
1225
1207
1812
2332
1987
2231
1330
1844
2989
1073
1786
2978
2716
2661
2043
1508
1177
1144
2179
2846
2486
2738
1510
1232
2455
1031
1057
2358
2436
2801
2074
2612
2691
1127
2249
2723
2217
2198
1394
1573
1061
1072
2037
1621
1237
2307
2586
2684
2469
2153
1414
1107
1883
2906
1040
2433
2055
2905
2366
1335
1263
2967
2796
2800
2417
1172
1613
1369
2223
1053
2124
2804
2446
2168
1950
2382
2792
1628
1395
2730
1908
2632
2722
1402
1834
2012
1100
1409
1943
2950
2860
1967
2228
2252
2197
1901
1994
2806
2755
1910
1556
1797
2676
2027
2629
1694
1444
2262
1542
2527
1930
2380
1652
2172
1567
2450
2290
1329
2577
1835
1178
1139
1981
1585
2359
1922
1982
1125
1914
1001
2665
2464
2634
1346
1562
2813
1798
2272
2281
2646
1948
1783
2820
1468
1970
1764
2408
1272
1276
1464
1173
1767
1851
2918
2108
1868
2280
1347
1373
2401
1734
1520
1150
1099
2919
1793
2421
1086
1895
1396
1327
2592
2383
2888
2968
2571
1997
1254
1203
1671
1749
2052
2412
1517
1699
1025
2044
3005
2761
2827
1353
1248
2357
2797
1762
2547
1579
1022
1864
1067
2789
2413
2186
2063
2790
1213
1641
1023
2681
1934
2766
2068
1042
2237
2819
2428
1996
2093
2972
1429
2641
2572
2786
1062
1968
1424
2795
1311
2770
1448
1845
2188
1513
1152
1911
2285
1435
2097
2321
2748
2522
2702
2973
2513
2117
1555
1815
1766
1078
2330
1166
1408
1364
2889
2336
2028
1149
1123
1897
1469
1804
2075
1824
2470
2928
1619
2102
2245
2335
2471
1761
1860
1856
2411
2517
1162
1135
2060
1452
1801
1622
1298
1235
1192
1587
2305
1303
1972
2657
2747
1490
1615
2264
2841
1735
2207
2214
2315
2779
1979
1774
2017
1991
2881
1525
1550
1853
2728
2857
1382
2990
1721
2564
2727
2644
2573
1269
2692
2909
1008
1076
1649
1499
2732
1604
1600
1271
1275
1915
2415
1634
1457
1016
1826
2898
1024
1386
1195
2739
2811
1877
1169
1208
2556
2268
1136
2942
1636
1498
1465
2559
1440
2802
2079
2185
1647
2356
1808
1114
2507
1157
2668
2039
1116
2301
2323
1541
2432
2288
1002
1194
2429
1953
1701
2662
2936
2705
1753
1388
1314
1609
2539
2103
2557
1325
2342
2266
2737
2461
1220
1336
2964
2744
2316
2393
1258
2969
1103
1236
2768
2685
1803
1865
1413
2422
1673
2277
2915
2061
1823
2924
2791
1570
1726
2156
1310
2119
1857
2111
2607
2062
2192
1818
1589
2838
2308
2903
2550
2376
1389
2240
2570
1470
1942
2914
2652
1958
2955
1372
2883
1873
2868
1722
2458
2309
1519
2717
2600
2364
2213
2544
2123
1104
1963
1775
1367
2963
1049
2753
1422
1777
1450
1141
1881
1807
2983
2300
2912
2855
2083
2267
1552
1400
2159
1841
2842
1925
1742
1731
2825
2230
2294
2927
2388
1374
1063
1459
1738
2157
2872
1988
2425
2355
2204
1646
2013
2520
2893
1497
2856
1081
1708
2026
1249
2149
1154
2817
2671
1060
1814
1212
2019
2781
2016
2130
1522
2565
1840
1903
1221
2647
2865
1882
2997
1045
1983
2367
1664
1167
2370
1861
2139
1635
2735
1961
1467
1013
2059
1174
1741
1122
1151
1875
2451
2406
2127
2719
2341
1267
1101
1051
2235
2176
1890
2049
1640
1342
2734
1639
2303
2524
1423
2274
2317
2488
2509
2216
1477
2660
2726
1759
1014
2894
1711
2054
1648
1871
1554
2713
2523
1445
2491
1121
1201
2201
2109
1005
1706
1732
2551
2664
2853
2391
1451
2655
2276
1047
2067
3350
3253
3228
3015
3076
3058
3089
3033
3363
3294
3230
3307
3268
3286
3242
3066
3184
3310
3348
3292
3059
3319
3063
3241
3030
3303
3119
3279
3166
3353
3168
3223
3090
3254
3199
3163
3153
3180
3304
3017
3260
3021
3173
3154
3072
3130
3178
3055
3298
3060
3039
3190
3112
3245
3143
3105
3115
3161
3293
3204
3234
3329
3280
3257
3249
3330
3043
3252
3088
3273
3216
3070
3122
3251
3082
3040
3200
3248
3069
3073
3247
3318
3356
3155
3299
3349
3256
3185
3140
3101
3326
3255
3037
3098
3214
3270
3272
3277
3335
3102
3346
3229
3331
3121
3011
3020
3028
3110
3211
3315
3052
3159
3016
3013
3049
3142
3014
3146
3137
3302
3144
3325
3282
3045
3097
3219
3323
3313
3340
3056
3092
3305
3133
3192
3139
3145
3087
3084
3342
3078
3148
3074
3276
3239
3352
3107
3220
3284
3271
3104
3343
3136
3205
3117
3321
3188
3290
3138
3093
3233
3316
3086
3311
3287
3094
3213
3351
3225
3202
3176
3264
3355
3075
3196
3336
3182
3197
3314
3170
3224
3095
3012
3288
3025
3332
3193
3177
3027
3275
3198
3217
3151
3109
3157
3042
3291
3347
3061
3174
3210
3026
3048
3296
3141
3106
3308
3175
3111
3099
3201
3129
3147
3128
3068
3044
3312
3125
3067
3032
3358
3278
3250
3156
3328
3079
3080
3179
3187
3132
3345
3360
3317
3158
3186
3120
3263
3235
3164
3062
3041
3354
3265
3215
3267
3181
3262
3333
3218
3172
3071
3209
3222
3183
3364
3266
3344
3444
3195
3057
3065
3357
3274
3338
3053
3108
3322
3628
3407
3206
3237
3261
3636
3412
3221
3643
3009
3258
3339
3283
3465
3022
3116
3046
3227
3038
3035
3010
3050
3269
3243
0
3135
3289
3231
3018
3091
3232
3189
3134
3096
3114
3207
3337
3236
3113
3194
3327
3341
3169
3150
3100
3126
3324
3103
3064
3152
3306
3165
3285
3226
3036
3320
3171
3544
3077
3240
3203
3118
3054
3259
3244
3019
3212
3642
3031
3309
3300
3123
3297
3160
3023
3238
3565
3460
3548
3008
3127
3131
3359
3047
3029
3191
3362
3392
3613
3526
3124
3083
3533
3024
3085
3334
3162
3051
3361
3638
15
3034
3421
3281
3149
3295
3656
3208
3301
3246
3167
3081
3578
3619
3510
3450
3570
3427
3665
3467
3605
3562
3374
3622
3601
3369
3552
3624
3587
3529
3484
3488
3469
3572
3413
3574
3426
3597
3513
3368
3468
3393
3647
3422
3445
3595
3664
3408
3644
3612
3400
3470
3531
3634
3516
3546
3661
3512
3620
3593
3483
3506
3499
3490
3401
3428
3497
3502
3366
3480
3604
3439
3385
3635
3616
3618
3463
3549
3433
3528
3602
3434
3492
3576
3667
3454
3498
3650
3666
3451
3609
3388
3485
3581
3589
3416
3378
3458
3651
3626
3662
3617
3542
3596
3536
3398
3535
3670
3380
3556
3391
3631
3464
3580
3603
3446
3659
3625
3606
3627
3538
3476
3404
3579
3477
3585
3425
3475
3507
3389
3592
3447
3435
3582
3459
3543
3505
3403
3641
3547
3534
3397
3567
3649
3365
3472
3590
3598
3491
3482
3405
3608
3655
3367
3660
3440
3669
3586
3452
3402
3525
3395
3646
3429
3387
3394
3611
3519
3653
3373
3514
3621
3479
3615
3588
3564
3371
3456
3537
3461
3550
3414
3443
3639
3663
3417
3442
3558
3500
3503
3599
3453
3629
3511
3557
3571
3522
3383
3486
3509
3423
3640
3504
3419
3523
3418
3431
3515
3560
3527
3449
3386
3569
3481
3575
3591
3410
3614
3441
3457
3438
3382
3610
3568
3633
3652
3541
3573
3415
3530
3654
3671
3520
3430
3411
3495
3384
3409
3432
3517
3396
3473
3566
3553
3466
3554
3540
3496
3577
3539
3668
3381
3632
3657
3372
3600
3390
3376
3559
3487
3630
3494
3521
3448
3648
3658
3545
3379
3375
3685
3675
3679
3705
3696
3676
3710
3698
3700
3697
3695
3682
3709
3703
3672
3684
3712
3680
3707
3674
3673
3686
3704
3701
3689
3726
3690
3699
3706
3681
3719
3677
12
3694
3683
3687
3678
3691
3702
3708
3718
3693
3688
3715
3692
3717
3729
3734
3711
3713
3732
3722
3957
3721
3720
3724
3731
3735
3730
3716
3925
3736
3728
3788
3727
3834
3783
3733
3725
3892
3946
3714
3737
3949
3723
6
3943
3820
3779
3940
3796
3931
3850
3888
3853
3860
3912
3769
3801
3907
3776
3856
3760
3741
3877
3836
3807
3823
3752
3897
3869
3828
3905
3939
3896
3935
3781
3953
3938
3849
3900
3848
3941
3889
3742
3763
3862
3847
3864
3839
3832
3868
3774
3827
3837
3818
3815
3886
3929
3928
3802
3784
3891
3830
3881
3826
3909
3867
3790
3913
3921
3858
3885
3754
3747
3846
3810
3895
3894
3865
3770
3764
3904
3861
3835
3775
3757
3923
3955
3876
3870
3761
3755
3899
3744
3936
3866
3798
3803
3998
3944
3882
3958
3825
3766
3786
3749
3814
3750
3797
3808
3813
3926
3916
3873
3739
4016
3952
3924
3919
3740
4023
3793
3898
3930
3804
3934
3950
3841
3883
3812
3948
3831
3773
3855
3792
3875
3745
3954
3782
3759
3887
3852
3791
3918
3914
3743
3794
3893
3811
3906
3778
3765
3771
3910
3785
3942
3777
3884
3768
3871
3787
3767
3878
3863
3842
3874
3890
4001
3800
3937
3756
16
3799
3872
3833
4008
3908
4020
3951
3851
3738
3780
3816
4012
4015
3806
3945
3920
3956
3819
3902
3947
3809
3922
3844
3903
3932
4007
4002
4022
3959
3854
3758
3880
3917
3933
3845
4021
3829
3838
3822
3748
3824
3789
3857
3821
3901
3746
3751
3762
3795
3753
3805
3911
3879
3859
3843
3840
3817
3915
3772
3927
3986
3962
3984
3977
3974
3963
3994
3980
3964
3992
3970
3969
3971
3989
3988
3976
3972
3973
3965
3993
3991
3990
3985
3961
4005
3960
3981
3995
3968
3982
4032
4063
3967
4111
3978
3987
3975
3983
3966
13
14
3979
4017
4006
4149
4090
4039
4042
4094
4000
4010
4013
3996
4014
3997
4004
3999
4019
4003
4018
4009
4011
4132
4161
4131
4137
4037
4114
4091
4054
4066
4082
4095
4155
4027
4097
4061
4151
4121
4127
4051
4136
4030
4152
4073
4124
4083
4157
4148
4065
4159
4047
4122
4052
4081
4029
4112
4077
4147
4084
4100
4080
4085
4163
4060
4076
4087
4120
4140
4135
4058
4048
4092
4089
4074
4125
4034
4128
4134
4150
4096
4109
4057
4130
4078
4067
4138
4106
4110
4144
4071
4064
4043
4164
4040
4153
4103
4143
4033
4062
4162
4154
4024
4070
4055
4123
4079
4044
4072
4086
4141
4105
4035
4099
4166
4101
4031
4049
4025
4069
4102
4056
4167
4156
4059
4139
4093
4118
4129
4117
4145
4098
4075
4126
4046
4119
4026
4108
4088
4115
4160
4133
4211
4165
4220
4146
4041
4242
4068
4028
4158
4172
4038
4045
4194
4142
4245
4104
4053
4113
4280
4116
4190
4036
4050
3
4107
4205
4272
4251
4247
4248
4171
4215
4178
4221
4200
4232
4243
4182
4724
4199
4219
4859
4736
4192
4270
4253
4777
4191
4169
4235
4255
4301
4173
4265
4201
4266
4492
4645
4851
4195
4214